TITLE = "Equilibrium TP Sweep: personal_mix"
VARIABLES = "T [K]", "Y(N2)", "Y(O2)", "Y(NO)", "Y(N)", "Y(O)", "dpdr", "dtdr", "cv"
ZONE T="TP_Sweep", I=2500, F=BLOCK
9.69428761e+02 9.75834822e+02 9.82229248e+02 9.88615696e+02 9.94994437e+02 
1.00141421e+03 1.00777844e+03 1.01413502e+03 1.02048410e+03 1.02682585e+03 
1.03316042e+03 1.03948796e+03 1.04580861e+03 1.05212251e+03 1.05842978e+03 
1.06473056e+03 1.07102496e+03 1.07731309e+03 1.08359508e+03 1.08987102e+03 
1.09614102e+03 1.10240518e+03 1.10866360e+03 1.11491636e+03 1.12116355e+03 
1.12740526e+03 1.13364157e+03 1.13987256e+03 1.14609831e+03 1.15231888e+03 
1.15853435e+03 1.16474479e+03 1.17095026e+03 1.17715082e+03 1.18334654e+03 
1.18953747e+03 1.19572367e+03 1.20190520e+03 1.20808211e+03 1.21425444e+03 
1.22042225e+03 1.22658559e+03 1.23274449e+03 1.23889901e+03 1.24504918e+03 
1.25119505e+03 1.25733666e+03 1.26347404e+03 1.26960722e+03 1.27573625e+03 
1.28186116e+03 1.28798198e+03 1.29409874e+03 1.30021147e+03 1.30632020e+03 
1.31242496e+03 1.31852577e+03 1.32462266e+03 1.33071566e+03 1.33680477e+03 
1.34289004e+03 1.34897147e+03 1.35504909e+03 1.36112292e+03 1.36719297e+03 
1.37325926e+03 1.37932180e+03 1.38538062e+03 1.39143572e+03 1.39748711e+03 
1.40353481e+03 1.40957883e+03 1.41561917e+03 1.42165585e+03 1.42768886e+03 
1.43371823e+03 1.43974394e+03 1.44576601e+03 1.45178443e+03 1.45779921e+03 
1.46381035e+03 1.46981785e+03 1.47582170e+03 1.48182189e+03 1.48781844e+03 
1.49381131e+03 1.49980052e+03 1.50578606e+03 1.51176790e+03 1.51774604e+03 
1.52372046e+03 1.52969115e+03 1.53565810e+03 1.54162128e+03 1.54758067e+03 
1.55353626e+03 1.55948801e+03 1.56543590e+03 1.57137991e+03 1.57732001e+03 
1.58325616e+03 1.58918834e+03 1.59511650e+03 1.60104062e+03 1.60696064e+03 
1.61287654e+03 1.61878826e+03 1.62469576e+03 1.63059899e+03 1.63649790e+03 
1.64239244e+03 1.64828256e+03 1.65416818e+03 1.66004926e+03 1.66592573e+03 
1.67179753e+03 1.67766457e+03 1.68352680e+03 1.68938414e+03 1.69523651e+03 
1.70108383e+03 1.70692601e+03 1.71276297e+03 1.71859463e+03 1.72442087e+03 
1.73024162e+03 1.73605678e+03 1.74186622e+03 1.74766987e+03 1.75346759e+03 
1.75925929e+03 1.76504484e+03 1.77082412e+03 1.77659702e+03 1.78236340e+03 
1.78812314e+03 1.79387610e+03 1.79962214e+03 1.80536113e+03 1.81109292e+03 
1.81681736e+03 1.82253430e+03 1.82824360e+03 1.83394508e+03 1.83963858e+03 
1.84532396e+03 1.85100102e+03 1.85666961e+03 1.86232955e+03 1.86798066e+03 
1.87362275e+03 1.87925565e+03 1.88487917e+03 1.89049312e+03 1.89609729e+03 
1.90169150e+03 1.90727555e+03 1.91284924e+03 1.91841235e+03 1.92396469e+03 
1.92950605e+03 1.93503621e+03 1.94055496e+03 1.94606208e+03 1.95155736e+03 
1.95704058e+03 1.96251152e+03 1.96796996e+03 1.97341568e+03 1.97884844e+03 
1.98426803e+03 1.98967421e+03 1.99506678e+03 2.00044549e+03 2.00581012e+03 
2.01116044e+03 2.01649624e+03 2.02181727e+03 2.02712332e+03 2.03241417e+03 
2.03768958e+03 2.04294933e+03 2.04819322e+03 2.05342100e+03 2.05863265e+03 
2.06382759e+03 2.06900580e+03 2.07416704e+03 2.07931113e+03 2.08443784e+03 
2.08954698e+03 2.09463834e+03 2.09971173e+03 2.10476696e+03 2.10980383e+03 
2.11482215e+03 2.11982175e+03 2.12480245e+03 2.12976407e+03 2.13470643e+03 
2.13962939e+03 2.14453276e+03 2.14941640e+03 2.15428016e+03 2.15912388e+03 
2.16394743e+03 2.16875067e+03 2.17353346e+03 2.17829569e+03 2.18303722e+03 
2.18775795e+03 2.19245776e+03 2.19713655e+03 2.20179422e+03 2.20643067e+03 
2.21104582e+03 2.21563958e+03 2.22021188e+03 2.22476264e+03 2.22929180e+03 
2.23379930e+03 2.23828508e+03 2.24274909e+03 2.24719129e+03 2.25161164e+03 
2.25601011e+03 2.26038667e+03 2.26474129e+03 2.26907396e+03 2.27338467e+03 
2.27767341e+03 2.28194017e+03 2.28618497e+03 2.29040780e+03 2.29460868e+03 
2.29878762e+03 2.30294466e+03 2.30707981e+03 2.31119310e+03 2.31528457e+03 
2.31935426e+03 2.32340221e+03 2.32742847e+03 2.33143308e+03 2.33541611e+03 
2.33937761e+03 2.34331764e+03 2.34723627e+03 2.35113357e+03 2.35500961e+03 
2.35886445e+03 2.36269819e+03 2.36651090e+03 2.37030267e+03 2.37407358e+03 
2.37782371e+03 2.38155317e+03 2.38526205e+03 2.38895043e+03 2.39261842e+03 
2.39626612e+03 2.39989364e+03 2.40350106e+03 2.40708851e+03 2.41065608e+03 
2.41420389e+03 2.41773205e+03 2.42124067e+03 2.42472985e+03 2.42819973e+03 
2.43165040e+03 2.43508200e+03 2.43849463e+03 2.44188841e+03 2.44526347e+03 
2.44861992e+03 2.45195788e+03 2.45527748e+03 2.45857884e+03 2.46186207e+03 
2.46512732e+03 2.46837468e+03 2.47160430e+03 2.47481629e+03 2.47801078e+03 
2.48118789e+03 2.48434775e+03 2.48749017e+03 2.49061590e+03 2.49372474e+03 
2.49681683e+03 2.49989228e+03 2.50295123e+03 2.50599380e+03 2.50902010e+03 
2.51203026e+03 2.51502441e+03 2.51800267e+03 2.52096516e+03 2.52391201e+03 
2.52684332e+03 2.52975923e+03 2.53265986e+03 2.53554532e+03 2.53841574e+03 
2.54127123e+03 2.54411191e+03 2.54693790e+03 2.54974932e+03 2.55254628e+03 
2.55532891e+03 2.55809730e+03 2.56085159e+03 2.56359188e+03 2.56631828e+03 
2.56903091e+03 2.57172988e+03 2.57441531e+03 2.57708729e+03 2.57974595e+03 
2.58239138e+03 2.58502371e+03 2.58764302e+03 2.59024944e+03 2.59284306e+03 
2.59542400e+03 2.59799235e+03 2.60054822e+03 2.60309171e+03 2.60562292e+03 
2.60814196e+03 2.61064892e+03 2.61314390e+03 2.61562700e+03 2.61809832e+03 
2.62055796e+03 2.62300601e+03 2.62544256e+03 2.62786771e+03 2.63028156e+03 
2.63268419e+03 2.63507570e+03 2.63745619e+03 2.63982573e+03 2.64218442e+03 
2.64453235e+03 2.64686960e+03 2.64919627e+03 2.65151243e+03 2.65381818e+03 
2.65611360e+03 2.65839877e+03 2.66067378e+03 2.66293871e+03 2.66519364e+03 
2.66743865e+03 2.66967382e+03 2.67189924e+03 2.67411497e+03 2.67632110e+03 
2.67851770e+03 2.68070486e+03 2.68288264e+03 2.68505112e+03 2.68721039e+03 
2.68936050e+03 2.69150153e+03 2.69363356e+03 2.69575665e+03 2.69787088e+03 
2.69997632e+03 2.70207304e+03 2.70416110e+03 2.70624057e+03 2.70831153e+03 
2.71037403e+03 2.71242815e+03 2.71447394e+03 2.71651149e+03 2.71854084e+03 
2.72056206e+03 2.72257522e+03 2.72458037e+03 2.72657759e+03 2.72856693e+03 
2.73054844e+03 2.73252220e+03 2.73448826e+03 2.73644668e+03 2.73839752e+03 
2.74034084e+03 2.74227668e+03 2.74420512e+03 2.74612620e+03 2.74803999e+03 
2.74994653e+03 2.75184588e+03 2.75373809e+03 2.75562323e+03 2.75750133e+03 
2.75937246e+03 2.76123666e+03 2.76309399e+03 2.76494450e+03 2.76678823e+03 
2.76862524e+03 2.77045558e+03 2.77227930e+03 2.77409644e+03 2.77590705e+03 
2.77771118e+03 2.77950888e+03 2.78130019e+03 2.78308517e+03 2.78486385e+03 
2.78663628e+03 2.78840250e+03 2.79016257e+03 2.79191652e+03 2.79366440e+03 
2.79540625e+03 2.79714211e+03 2.79887204e+03 2.80059605e+03 2.80231421e+03 
2.80402655e+03 2.80573312e+03 2.80743394e+03 2.80912907e+03 2.81081854e+03 
2.81250239e+03 2.81418066e+03 2.81585339e+03 2.81752062e+03 2.81918239e+03 
2.82083872e+03 2.82248967e+03 2.82413526e+03 2.82577553e+03 2.82741053e+03 
2.82904028e+03 2.83066482e+03 2.83228418e+03 2.83389841e+03 2.83550753e+03 
2.83711158e+03 2.83871059e+03 2.84030460e+03 2.84189364e+03 2.84347775e+03 
2.84505694e+03 2.84663127e+03 2.84820076e+03 2.84976543e+03 2.85132534e+03 
2.85288049e+03 2.85443093e+03 2.85597669e+03 2.85751779e+03 2.85905427e+03 
2.86058616e+03 2.86211348e+03 2.86363627e+03 2.86515455e+03 2.86666836e+03 
2.86817771e+03 2.86968265e+03 2.87118320e+03 2.87267938e+03 2.87417122e+03 
2.87565876e+03 2.87714201e+03 2.87862101e+03 2.88009578e+03 2.88156635e+03 
2.88303274e+03 2.88449498e+03 2.88595310e+03 2.88740712e+03 2.88885706e+03 
2.89030296e+03 2.89174483e+03 2.89318270e+03 2.89461660e+03 2.89604655e+03 
2.89747257e+03 2.89889469e+03 2.90031292e+03 2.90172731e+03 2.90313786e+03 
2.90454460e+03 2.90594756e+03 2.90734675e+03 2.90874219e+03 2.91013392e+03 
2.91152196e+03 2.91290631e+03 2.91428702e+03 2.91566409e+03 2.91703755e+03 
2.91840742e+03 2.91977372e+03 2.92113647e+03 2.92249570e+03 2.92385142e+03 
2.92520365e+03 2.92655242e+03 2.92789774e+03 2.92923963e+03 2.93057812e+03 
2.93191322e+03 2.93324495e+03 2.93457333e+03 2.93589839e+03 2.93722013e+03 
2.93853858e+03 2.93985376e+03 2.94116568e+03 2.94247436e+03 2.94377983e+03 
2.94508209e+03 2.94638118e+03 2.94767709e+03 2.94896986e+03 2.95025950e+03 
2.95154603e+03 2.95282946e+03 2.95410982e+03 2.95538711e+03 2.95666135e+03 
2.95793257e+03 2.95920078e+03 2.96046599e+03 2.96172822e+03 2.96298749e+03 
2.96424382e+03 2.96549721e+03 2.96674768e+03 2.96799526e+03 2.96923995e+03 
2.97048178e+03 2.97172075e+03 2.97295688e+03 2.97419019e+03 2.97542069e+03 
2.97664840e+03 2.97787333e+03 2.97909550e+03 2.98031492e+03 2.98153160e+03 
2.98274556e+03 2.98395681e+03 2.98516538e+03 2.98637126e+03 2.98757448e+03 
2.98877505e+03 2.98997298e+03 2.99116829e+03 2.99236099e+03 2.99355109e+03 
2.99473860e+03 2.99592355e+03 2.99710594e+03 2.99828579e+03 2.99946310e+03 
3.00063790e+03 3.00181019e+03 3.00297999e+03 3.00414731e+03 3.00531216e+03 
3.00647455e+03 3.00763450e+03 3.00879202e+03 3.00994712e+03 3.01109981e+03 
3.01225011e+03 3.01339803e+03 3.01454357e+03 3.01568675e+03 3.01682758e+03 
3.01796608e+03 3.01910225e+03 3.02023611e+03 3.02136767e+03 3.02249693e+03 
3.02362391e+03 3.02474862e+03 3.02587108e+03 3.02699129e+03 3.02810926e+03 
3.02922500e+03 3.03033853e+03 3.03144985e+03 3.03255898e+03 3.03366593e+03 
3.03477070e+03 3.03587331e+03 3.03697377e+03 3.03807208e+03 3.03916826e+03 
3.04026232e+03 3.04135427e+03 3.04244411e+03 3.04353186e+03 3.04461753e+03 
3.04570112e+03 3.04678265e+03 3.04786213e+03 3.04893956e+03 3.05001496e+03 
3.05108833e+03 3.05215968e+03 3.05322902e+03 3.05429637e+03 3.05536173e+03 
3.05642511e+03 3.05748652e+03 3.05854597e+03 3.05960346e+03 3.06065901e+03 
3.06171262e+03 3.06276431e+03 3.06381408e+03 3.06486194e+03 3.06590790e+03 
3.06695197e+03 3.06799415e+03 3.06903446e+03 3.07007290e+03 3.07110949e+03 
3.07214422e+03 3.07317711e+03 3.07420817e+03 3.07523740e+03 3.07626481e+03 
3.07729041e+03 3.07831421e+03 3.07933622e+03 3.08035644e+03 3.08137488e+03 
3.08239155e+03 3.08340646e+03 3.08441961e+03 3.08543102e+03 3.08644068e+03 
3.08744861e+03 3.08845482e+03 3.08945931e+03 3.09046209e+03 3.09146316e+03 
3.09246254e+03 3.09346023e+03 3.09445624e+03 3.09545058e+03 3.09644324e+03 
3.09743425e+03 3.09842361e+03 3.09941131e+03 3.10039738e+03 3.10138182e+03 
3.10236463e+03 3.10334582e+03 3.10432541e+03 3.10530338e+03 3.10627976e+03 
3.10725454e+03 3.10822774e+03 3.10919937e+03 3.11016942e+03 3.11113790e+03 
3.11210483e+03 3.11307020e+03 3.11403402e+03 3.11499631e+03 3.11595706e+03 
3.11691629e+03 3.11787399e+03 3.11883018e+03 3.11978486e+03 3.12073804e+03 
3.12168972e+03 3.12263991e+03 3.12358862e+03 3.12453584e+03 3.12548160e+03 
3.12642589e+03 3.12736871e+03 3.12831009e+03 3.12925001e+03 3.13018849e+03 
3.13112554e+03 3.13206115e+03 3.13299533e+03 3.13392810e+03 3.13485945e+03 
3.13578939e+03 3.13671792e+03 3.13764506e+03 3.13857081e+03 3.13949517e+03 
3.14041814e+03 3.14133974e+03 3.14225997e+03 3.14317884e+03 3.14409634e+03 
3.14501249e+03 3.14592729e+03 3.14684075e+03 3.14775286e+03 3.14866364e+03 
3.14957310e+03 3.15048122e+03 3.15138803e+03 3.15229353e+03 3.15319772e+03 
3.15410060e+03 3.15500219e+03 3.15590248e+03 3.15680148e+03 3.15769920e+03 
3.15859564e+03 3.15949080e+03 3.16038470e+03 3.16127733e+03 3.16216870e+03 
3.16305882e+03 3.16394769e+03 3.16483531e+03 3.16572169e+03 3.16660683e+03 
3.16749074e+03 3.16837343e+03 3.16925489e+03 3.17013513e+03 3.17101416e+03 
3.17189199e+03 3.17276860e+03 3.17364402e+03 3.17451824e+03 3.17539127e+03 
3.17626312e+03 3.17713378e+03 3.17800326e+03 3.17887157e+03 3.17973871e+03 
3.18060469e+03 3.18146950e+03 3.18233316e+03 3.18319566e+03 3.18405702e+03 
3.18491723e+03 3.18577630e+03 3.18663424e+03 3.18749104e+03 3.18834672e+03 
3.18920127e+03 3.19005471e+03 3.19090702e+03 3.19175823e+03 3.19260833e+03 
3.19345732e+03 3.19430522e+03 3.19515202e+03 3.19599773e+03 3.19684235e+03 
3.19768588e+03 3.19852834e+03 3.19936972e+03 3.20021002e+03 3.20104926e+03 
3.20188743e+03 3.20272454e+03 3.20356059e+03 3.20439559e+03 3.20522954e+03 
3.20606244e+03 3.20689430e+03 3.20772512e+03 3.20855491e+03 3.20938366e+03 
3.21021138e+03 3.21103808e+03 3.21186376e+03 3.21268842e+03 3.21351206e+03 
3.21433470e+03 3.21515633e+03 3.21597695e+03 3.21679657e+03 3.21761520e+03 
3.21843283e+03 3.21924948e+03 3.22006513e+03 3.22087980e+03 3.22169350e+03 
3.22250621e+03 3.22331795e+03 3.22412873e+03 3.22493853e+03 3.22574737e+03 
3.22655526e+03 3.22736218e+03 3.22816815e+03 3.22897317e+03 3.22977725e+03 
3.23058037e+03 3.23138256e+03 3.23218381e+03 3.23298413e+03 3.23378351e+03 
3.23458197e+03 3.23537950e+03 3.23617610e+03 3.23697179e+03 3.23776657e+03 
3.23856042e+03 3.23935337e+03 3.24014542e+03 3.24093655e+03 3.24172679e+03 
3.24251613e+03 3.24330457e+03 3.24409212e+03 3.24487879e+03 3.24566456e+03 
3.24644945e+03 3.24723347e+03 3.24801660e+03 3.24879886e+03 3.24958025e+03 
3.25036076e+03 3.25114042e+03 3.25191920e+03 3.25269713e+03 3.25347420e+03 
3.25425042e+03 3.25502578e+03 3.25580029e+03 3.25657396e+03 3.25734678e+03 
3.25811876e+03 3.25888990e+03 3.25966020e+03 3.26042968e+03 3.26119832e+03 
3.26196613e+03 3.26273312e+03 3.26349928e+03 3.26426463e+03 3.26502916e+03 
3.26579287e+03 3.26655577e+03 3.26731786e+03 3.26807914e+03 3.26883962e+03 
3.26959930e+03 3.27035817e+03 3.27111625e+03 3.27187354e+03 3.27263003e+03 
3.27338574e+03 3.27414065e+03 3.27489479e+03 3.27564814e+03 3.27640071e+03 
3.27715250e+03 3.27790352e+03 3.27865377e+03 3.27940324e+03 3.28015195e+03 
3.28089989e+03 3.28164708e+03 3.28239350e+03 3.28313916e+03 3.28388406e+03 
3.28462822e+03 3.28537162e+03 3.28611427e+03 3.28685618e+03 3.28759734e+03 
3.28833776e+03 3.28907744e+03 3.28981639e+03 3.29055460e+03 3.29129207e+03 
3.29202882e+03 3.29276483e+03 3.29350012e+03 3.29423469e+03 3.29496854e+03 
3.29570166e+03 3.29643407e+03 3.29716576e+03 3.29789675e+03 3.29862702e+03 
3.29935658e+03 3.30008543e+03 3.30081358e+03 3.30154103e+03 3.30226778e+03 
3.30299383e+03 3.30371918e+03 3.30444384e+03 3.30516781e+03 3.30589109e+03 
3.30661368e+03 3.30733558e+03 3.30805681e+03 3.30877735e+03 3.30949721e+03 
3.31021639e+03 3.31093490e+03 3.31165274e+03 3.31236990e+03 3.31308640e+03 
3.31380222e+03 3.31451738e+03 3.31523188e+03 3.31594572e+03 3.31665890e+03 
3.31737142e+03 3.31808328e+03 3.31879449e+03 3.31950505e+03 3.32021496e+03 
3.32092422e+03 3.32163284e+03 3.32234081e+03 3.32304814e+03 3.32375483e+03 
3.32446088e+03 3.32516629e+03 3.32587107e+03 3.32657521e+03 3.32727873e+03 
3.32798161e+03 3.32868387e+03 3.32938551e+03 3.33008651e+03 3.33078690e+03 
3.33148667e+03 3.33218582e+03 3.33288435e+03 3.33358227e+03 3.33427957e+03 
3.33497626e+03 3.33567235e+03 3.33636782e+03 3.33706269e+03 3.33775696e+03 
3.33845062e+03 3.33914369e+03 3.33983615e+03 3.34052802e+03 3.34121929e+03 
3.34190996e+03 3.34260005e+03 3.34328954e+03 3.34397845e+03 3.34466677e+03 
3.34535450e+03 3.34604165e+03 3.34672822e+03 3.34741420e+03 3.34809961e+03 
3.34878444e+03 3.34946870e+03 3.35015238e+03 3.35083549e+03 3.35151803e+03 
3.35220000e+03 3.35288140e+03 3.35356224e+03 3.35424251e+03 3.35492222e+03 
3.35560137e+03 3.35627995e+03 3.35695799e+03 3.35763546e+03 3.35831238e+03 
3.35898875e+03 3.35966456e+03 3.36033983e+03 3.36101454e+03 3.36168871e+03 
3.36236234e+03 3.36303542e+03 3.36370795e+03 3.36437995e+03 3.36505141e+03 
3.36572233e+03 3.36639271e+03 3.36706256e+03 3.36773187e+03 3.36840065e+03 
3.36906890e+03 3.36973663e+03 3.37040382e+03 3.37107049e+03 3.37173664e+03 
3.37240226e+03 3.37306736e+03 3.37373194e+03 3.37439600e+03 3.37505954e+03 
3.37572256e+03 3.37638508e+03 3.37704708e+03 3.37770856e+03 3.37836954e+03 
3.37903001e+03 3.37968997e+03 3.38034942e+03 3.38100837e+03 3.38166682e+03 
3.38232476e+03 3.38298220e+03 3.38363915e+03 3.38429559e+03 3.38495154e+03 
3.38560700e+03 3.38626196e+03 3.38691642e+03 3.38757040e+03 3.38822389e+03 
3.38887688e+03 3.38952939e+03 3.39018142e+03 3.39083296e+03 3.39148402e+03 
3.39213459e+03 3.39278469e+03 3.39343430e+03 3.39408344e+03 3.39473210e+03 
3.39538028e+03 3.39602799e+03 3.39667523e+03 3.39732200e+03 3.39796829e+03 
3.39861412e+03 3.39925948e+03 3.39990437e+03 3.40054880e+03 3.40119276e+03 
3.40183626e+03 3.40247930e+03 3.40312188e+03 3.40376400e+03 3.40440566e+03 
3.40504686e+03 3.40568761e+03 3.40632791e+03 3.40696775e+03 3.40760714e+03 
3.40824608e+03 3.40888457e+03 3.40952261e+03 3.41016021e+03 3.41079736e+03 
3.41143406e+03 3.41207033e+03 3.41270615e+03 3.41334152e+03 3.41397646e+03 
3.41461096e+03 3.41524502e+03 3.41587865e+03 3.41651184e+03 3.41714460e+03 
3.41777692e+03 3.41840881e+03 3.41904027e+03 3.41967130e+03 3.42030191e+03 
3.42093208e+03 3.42156183e+03 3.42219116e+03 3.42282006e+03 3.42344854e+03 
3.42407660e+03 3.42470423e+03 3.42533145e+03 3.42595825e+03 3.42658463e+03 
3.42721059e+03 3.42783614e+03 3.42846128e+03 3.42908600e+03 3.42971032e+03 
3.43033422e+03 3.43095771e+03 3.43158079e+03 3.43220347e+03 3.43282574e+03 
3.43344760e+03 3.43406906e+03 3.43469012e+03 3.43531077e+03 3.43593102e+03 
3.43655088e+03 3.43717033e+03 3.43778939e+03 3.43840805e+03 3.43902631e+03 
3.43964418e+03 3.44026166e+03 3.44087874e+03 3.44149543e+03 3.44211173e+03 
3.44272764e+03 3.44334316e+03 3.44395829e+03 3.44457304e+03 3.44518740e+03 
3.44580138e+03 3.44641497e+03 3.44702818e+03 3.44764101e+03 3.44825346e+03 
3.44886553e+03 3.44947722e+03 3.45008853e+03 3.45069946e+03 3.45131002e+03 
3.45192021e+03 3.45253002e+03 3.45313946e+03 3.45374852e+03 3.45435722e+03 
3.45496554e+03 3.45557350e+03 3.45618109e+03 3.45678831e+03 3.45739516e+03 
3.45800165e+03 3.45860778e+03 3.45921354e+03 3.45981894e+03 3.46042397e+03 
3.46102865e+03 3.46163297e+03 3.46223693e+03 3.46284053e+03 3.46344378e+03 
3.46404666e+03 3.46464920e+03 3.46525138e+03 3.46585320e+03 3.46645468e+03 
3.46705580e+03 3.46765657e+03 3.46825700e+03 3.46885707e+03 3.46945680e+03 
3.47005618e+03 3.47065521e+03 3.47125390e+03 3.47185225e+03 3.47245025e+03 
3.47304791e+03 3.47364522e+03 3.47424220e+03 3.47483884e+03 3.47543513e+03 
3.47603109e+03 3.47662672e+03 3.47722200e+03 3.47781695e+03 3.47841157e+03 
3.47900585e+03 3.47959980e+03 3.48019342e+03 3.48078671e+03 3.48137966e+03 
3.48197229e+03 3.48256459e+03 3.48315656e+03 3.48374820e+03 3.48433952e+03 
3.48493051e+03 3.48552118e+03 3.48611152e+03 3.48670155e+03 3.48729124e+03 
3.48788062e+03 3.48846968e+03 3.48905842e+03 3.48964684e+03 3.49023494e+03 
3.49082273e+03 3.49141019e+03 3.49199735e+03 3.49258419e+03 3.49317071e+03 
3.49375692e+03 3.49434282e+03 3.49492841e+03 3.49551369e+03 3.49609866e+03 
3.49668331e+03 3.49726766e+03 3.49785171e+03 3.49843544e+03 3.49901887e+03 
3.49960200e+03 3.50018482e+03 3.50076734e+03 3.50134955e+03 3.50193147e+03 
3.50251308e+03 3.50309439e+03 3.50367540e+03 3.50425611e+03 3.50483653e+03 
3.50541664e+03 3.50599646e+03 3.50657599e+03 3.50715522e+03 3.50773415e+03 
3.50831279e+03 3.50889114e+03 3.50946920e+03 3.51004696e+03 3.51062444e+03 
3.51120162e+03 3.51177852e+03 3.51235513e+03 3.51293144e+03 3.51350748e+03 
3.51408322e+03 3.51465868e+03 3.51523386e+03 3.51580875e+03 3.51638336e+03 
3.51695769e+03 3.51753173e+03 3.51810550e+03 3.51867898e+03 3.51925218e+03 
3.51982511e+03 3.52039775e+03 3.52097012e+03 3.52154221e+03 3.52211403e+03 
3.52268557e+03 3.52325683e+03 3.52382783e+03 3.52439855e+03 3.52496899e+03 
3.52553917e+03 3.52610907e+03 3.52667870e+03 3.52724806e+03 3.52781716e+03 
3.52838598e+03 3.52895454e+03 3.52952283e+03 3.53009085e+03 3.53065861e+03 
3.53122611e+03 3.53179333e+03 3.53236030e+03 3.53292700e+03 3.53349344e+03 
3.53405962e+03 3.53462554e+03 3.53519120e+03 3.53575659e+03 3.53632173e+03 
3.53688661e+03 3.53745124e+03 3.53801560e+03 3.53857971e+03 3.53914357e+03 
3.53970717e+03 3.54027051e+03 3.54083360e+03 3.54139644e+03 3.54195903e+03 
3.54252136e+03 3.54308345e+03 3.54364528e+03 3.54420687e+03 3.54476820e+03 
3.54532929e+03 3.54589012e+03 3.54645072e+03 3.54701106e+03 3.54757116e+03 
3.54813101e+03 3.54869062e+03 3.54924999e+03 3.54980911e+03 3.55036799e+03 
3.55092663e+03 3.55148502e+03 3.55204318e+03 3.55260109e+03 3.55315877e+03 
3.55371620e+03 3.55427340e+03 3.55483036e+03 3.55538708e+03 3.55594357e+03 
3.55649982e+03 3.55705584e+03 3.55761162e+03 3.55816717e+03 3.55872248e+03 
3.55927756e+03 3.55983241e+03 3.56038703e+03 3.56094141e+03 3.56149557e+03 
3.56204949e+03 3.56260319e+03 3.56315666e+03 3.56370990e+03 3.56426291e+03 
3.56481570e+03 3.56536826e+03 3.56592059e+03 3.56647270e+03 3.56702459e+03 
3.56757625e+03 3.56812769e+03 3.56867890e+03 3.56922990e+03 3.56978067e+03 
3.57033122e+03 3.57088155e+03 3.57143166e+03 3.57198156e+03 3.57253123e+03 
3.57308069e+03 3.57362992e+03 3.57417894e+03 3.57472775e+03 3.57527634e+03 
3.57582471e+03 3.57637287e+03 3.57692082e+03 3.57746855e+03 3.57801607e+03 
3.57856338e+03 3.57911048e+03 3.57965736e+03 3.58020404e+03 3.58075050e+03 
3.58129675e+03 3.58184280e+03 3.58238864e+03 3.58293427e+03 3.58347969e+03 
3.58402491e+03 3.58456992e+03 3.58511472e+03 3.58565932e+03 3.58620371e+03 
3.58674791e+03 3.58729189e+03 3.58783568e+03 3.58837926e+03 3.58892264e+03 
3.58946582e+03 3.59000880e+03 3.59055158e+03 3.59109416e+03 3.59163654e+03 
3.59217872e+03 3.59272071e+03 3.59326249e+03 3.59380408e+03 3.59434548e+03 
3.59488667e+03 3.59542768e+03 3.59596848e+03 3.59650910e+03 3.59704952e+03 
3.59758974e+03 3.59812978e+03 3.59866962e+03 3.59920927e+03 3.59974873e+03 
3.60028800e+03 3.60082708e+03 3.60136597e+03 3.60190467e+03 3.60244318e+03 
3.60298151e+03 3.60351964e+03 3.60405759e+03 3.60459536e+03 3.60513293e+03 
3.60567033e+03 3.60620753e+03 3.60674456e+03 3.60728140e+03 3.60781805e+03 
3.60835453e+03 3.60889082e+03 3.60942693e+03 3.60996285e+03 3.61049860e+03 
3.61103417e+03 3.61156956e+03 3.61210477e+03 3.61263979e+03 3.61317465e+03 
3.61370932e+03 3.61424382e+03 3.61477813e+03 3.61531228e+03 3.61584625e+03 
3.61638004e+03 3.61691366e+03 3.61744710e+03 3.61798037e+03 3.61851346e+03 
3.61904639e+03 3.61957914e+03 3.62011172e+03 3.62064413e+03 3.62117636e+03 
3.62170843e+03 3.62224033e+03 3.62277205e+03 3.62330361e+03 3.62383500e+03 
3.62436622e+03 3.62489728e+03 3.62542817e+03 3.62595889e+03 3.62648944e+03 
3.62701983e+03 3.62755006e+03 3.62808012e+03 3.62861001e+03 3.62913975e+03 
3.62966931e+03 3.63019872e+03 3.63072797e+03 3.63125705e+03 3.63178597e+03 
3.63231473e+03 3.63284333e+03 3.63337177e+03 3.63390005e+03 3.63442817e+03 
3.63495614e+03 3.63548394e+03 3.63601159e+03 3.63653908e+03 3.63706642e+03 
3.63759359e+03 3.63812062e+03 3.63864748e+03 3.63917420e+03 3.63970076e+03 
3.64022716e+03 3.64075341e+03 3.64127951e+03 3.64180545e+03 3.64233125e+03 
3.64285689e+03 3.64338238e+03 3.64390772e+03 3.64443291e+03 3.64495795e+03 
3.64548284e+03 3.64600759e+03 3.64653218e+03 3.64705663e+03 3.64758093e+03 
3.64810508e+03 3.64862908e+03 3.64915294e+03 3.64967665e+03 3.65020022e+03 
3.65072364e+03 3.65124692e+03 3.65177006e+03 3.65229305e+03 3.65281590e+03 
3.65333860e+03 3.65386117e+03 3.65438359e+03 3.65490587e+03 3.65542801e+03 
3.65595001e+03 3.65647187e+03 3.65699359e+03 3.65751517e+03 3.65803661e+03 
3.65855791e+03 3.65907908e+03 3.65960011e+03 3.66012100e+03 3.66064176e+03 
3.66116238e+03 3.66168286e+03 3.66220321e+03 3.66272342e+03 3.66324350e+03 
3.66376345e+03 3.66428326e+03 3.66480294e+03 3.66532248e+03 3.66584190e+03 
3.66636118e+03 3.66688033e+03 3.66739935e+03 3.66791824e+03 3.66843700e+03 
3.66895563e+03 3.66947413e+03 3.66999250e+03 3.67051075e+03 3.67102886e+03 
3.67154685e+03 3.67206471e+03 3.67258245e+03 3.67310005e+03 3.67361754e+03 
3.67413489e+03 3.67465212e+03 3.67516923e+03 3.67568621e+03 3.67620307e+03 
3.67671981e+03 3.67723642e+03 3.67775291e+03 3.67826928e+03 3.67878553e+03 
3.67930165e+03 3.67981765e+03 3.68033354e+03 3.68084930e+03 3.68136494e+03 
3.68188047e+03 3.68239587e+03 3.68291116e+03 3.68342633e+03 3.68394138e+03 
3.68445632e+03 3.68497113e+03 3.68548583e+03 3.68600042e+03 3.68651489e+03 
3.68702924e+03 3.68754348e+03 3.68805761e+03 3.68857162e+03 3.68908552e+03 
3.68959930e+03 3.69011297e+03 3.69062653e+03 3.69113998e+03 3.69165331e+03 
3.69216654e+03 3.69267965e+03 3.69319265e+03 3.69370554e+03 3.69421833e+03 
3.69473100e+03 3.69524357e+03 3.69575602e+03 3.69626837e+03 3.69678061e+03 
3.69729275e+03 3.69780477e+03 3.69831669e+03 3.69882851e+03 3.69934022e+03 
3.69985182e+03 3.70036332e+03 3.70087471e+03 3.70138600e+03 3.70189719e+03 
3.70240827e+03 3.70291925e+03 3.70343013e+03 3.70394091e+03 3.70445158e+03 
3.70496215e+03 3.70547262e+03 3.70598299e+03 3.70649326e+03 3.70700343e+03 
3.70751350e+03 3.70802348e+03 3.70853335e+03 3.70904312e+03 3.70955280e+03 
3.71006238e+03 3.71057186e+03 3.71108125e+03 3.71159054e+03 3.71209973e+03 
3.71260883e+03 3.71311783e+03 3.71362674e+03 3.71413555e+03 3.71464427e+03 
3.71515289e+03 3.71566142e+03 3.71616986e+03 3.71667821e+03 3.71718646e+03 
3.71769462e+03 3.71820269e+03 3.71871067e+03 3.71921856e+03 3.71972636e+03 
3.72023407e+03 3.72074169e+03 3.72124922e+03 3.72175666e+03 3.72226401e+03 
3.72277127e+03 3.72327845e+03 3.72378554e+03 3.72429254e+03 3.72479946e+03 
3.72530628e+03 3.72581303e+03 3.72631969e+03 3.72682626e+03 3.72733275e+03 
3.72783915e+03 3.72834547e+03 3.72885170e+03 3.72935786e+03 3.72986393e+03 
3.73036991e+03 3.73087582e+03 3.73138164e+03 3.73188738e+03 3.73239304e+03 
3.73289862e+03 3.73340412e+03 3.73390954e+03 3.73441488e+03 3.73492014e+03 
3.73542532e+03 3.73593042e+03 3.73643545e+03 3.73694040e+03 3.73744527e+03 
3.73795006e+03 3.73845477e+03 3.73895941e+03 3.73946398e+03 3.73996846e+03 
3.74047288e+03 3.74097722e+03 3.74148148e+03 3.74198567e+03 3.74248978e+03 
3.74299382e+03 3.74349779e+03 3.74400169e+03 3.74450551e+03 3.74500926e+03 
3.74551294e+03 3.74601655e+03 3.74652009e+03 3.74702356e+03 3.74752695e+03 
3.74803028e+03 3.74853354e+03 3.74903673e+03 3.74953984e+03 3.75004290e+03 
3.75054588e+03 3.75104879e+03 3.75155164e+03 3.75205442e+03 3.75255714e+03 
3.75305978e+03 3.75356236e+03 3.75406488e+03 3.75456733e+03 3.75506972e+03 
3.75557204e+03 3.75607430e+03 3.75657649e+03 3.75707862e+03 3.75758069e+03 
3.75808269e+03 3.75858463e+03 3.75908651e+03 3.75958833e+03 3.76009008e+03 
3.76059178e+03 3.76109341e+03 3.76159499e+03 3.76209650e+03 3.76259796e+03 
3.76309935e+03 3.76360069e+03 3.76410197e+03 3.76460319e+03 3.76510435e+03 
3.76560545e+03 3.76610650e+03 3.76660749e+03 3.76710842e+03 3.76760930e+03 
3.76811012e+03 3.76861089e+03 3.76911160e+03 3.76961225e+03 3.77011286e+03 
3.77061340e+03 3.77111390e+03 3.77161434e+03 3.77211473e+03 3.77261506e+03 
3.77311534e+03 3.77361557e+03 3.77411575e+03 3.77461588e+03 3.77511596e+03 
3.77561598e+03 3.77611596e+03 3.77661589e+03 3.77711576e+03 3.77761559e+03 
3.77811537e+03 3.77861510e+03 3.77911478e+03 3.77961441e+03 3.78011400e+03 
3.78061354e+03 3.78111303e+03 3.78161247e+03 3.78211187e+03 3.78261123e+03 
3.78311054e+03 3.78360980e+03 3.78410902e+03 3.78460819e+03 3.78510732e+03 
3.78560641e+03 3.78610545e+03 3.78660445e+03 3.78710340e+03 3.78760232e+03 
3.78810119e+03 3.78860002e+03 3.78909881e+03 3.78959756e+03 3.79009627e+03 
3.79059493e+03 3.79109356e+03 3.79159215e+03 3.79209069e+03 3.79258920e+03 
3.79308767e+03 3.79358611e+03 3.79408450e+03 3.79458286e+03 3.79508117e+03 
3.79557946e+03 3.79607770e+03 3.79657591e+03 3.79707408e+03 3.79757222e+03 
3.79807032e+03 3.79856839e+03 3.79906642e+03 3.79956442e+03 3.80006238e+03 
3.80056032e+03 3.80105821e+03 3.80155608e+03 3.80205391e+03 3.80255171e+03 
3.80304948e+03 3.80354721e+03 3.80404492e+03 3.80454259e+03 3.80504023e+03 
3.80553785e+03 3.80603543e+03 3.80653298e+03 3.80703051e+03 3.80752800e+03 
3.80802547e+03 3.80852291e+03 3.80902032e+03 3.80951770e+03 3.81001506e+03 
3.81051239e+03 3.81100969e+03 3.81150697e+03 3.81200422e+03 3.81250144e+03 
3.81299864e+03 3.81349582e+03 3.81399297e+03 3.81449009e+03 3.81498719e+03 
3.81548427e+03 3.81598133e+03 3.81647836e+03 3.81697537e+03 3.81747236e+03 
3.81796932e+03 3.81846627e+03 3.81896319e+03 3.81946009e+03 3.81995697e+03 
3.82045384e+03 3.82095068e+03 3.82144750e+03 3.82194430e+03 3.82244109e+03 
3.82293785e+03 3.82343460e+03 3.82393133e+03 3.82442804e+03 3.82492473e+03 
3.82542141e+03 3.82591807e+03 3.82641472e+03 3.82691134e+03 3.82740796e+03 
3.82790456e+03 3.82840114e+03 3.82889771e+03 3.82939426e+03 3.82989080e+03 
3.83038733e+03 3.83088384e+03 3.83138034e+03 3.83187683e+03 3.83237331e+03 
3.83286977e+03 3.83336623e+03 3.83386267e+03 3.83435910e+03 3.83485552e+03 
3.83535193e+03 3.83584833e+03 3.83634472e+03 3.83684110e+03 3.83733747e+03 
3.83783383e+03 3.83833019e+03 3.83882653e+03 3.83932287e+03 3.83981921e+03 
3.84031553e+03 3.84081185e+03 3.84130816e+03 3.84180447e+03 3.84230077e+03 
3.84279707e+03 3.84329336e+03 3.84378964e+03 3.84428593e+03 3.84478221e+03 
3.84527848e+03 3.84577475e+03 3.84627102e+03 3.84676729e+03 3.84726355e+03 
3.84775981e+03 3.84825607e+03 3.84875233e+03 3.84924859e+03 3.84974484e+03 
3.85024110e+03 3.85073736e+03 3.85123362e+03 3.85172987e+03 3.85222613e+03 
3.85272239e+03 3.85321865e+03 3.85371492e+03 3.85421119e+03 3.85470746e+03 
3.85520373e+03 3.85570000e+03 3.85619628e+03 3.85669257e+03 3.85718885e+03 
3.85768515e+03 3.85818144e+03 3.85867775e+03 3.85917406e+03 3.85967037e+03 
3.86016669e+03 3.86066302e+03 3.86115936e+03 3.86165570e+03 3.86215205e+03 
3.86264841e+03 3.86314477e+03 3.86364115e+03 3.86413753e+03 3.86463393e+03 
3.86513033e+03 3.86562674e+03 3.86612317e+03 3.86661960e+03 3.86711605e+03 
3.86761250e+03 3.86810897e+03 3.86860545e+03 3.86910195e+03 3.86959845e+03 
3.87009497e+03 3.87059150e+03 3.87108805e+03 3.87158461e+03 3.87208118e+03 
3.87257777e+03 3.87307438e+03 3.87357100e+03 3.87406763e+03 3.87456428e+03 
3.87506095e+03 3.87555764e+03 3.87605434e+03 3.87655106e+03 3.87704779e+03 
3.87754455e+03 3.87804132e+03 3.87853811e+03 3.87903492e+03 3.87953175e+03 