TITLE = "Equilibrium TP Sweep: AIR5"
VARIABLES = "T [K]", "Y(N2)", "Y(O2)", "Y(NO)", "Y(N)", "Y(O)"
ZONE T="TP_Sweep", I=20000, F=BLOCK
4.39859439e+02 4.39888801e+02 4.39918184e+02 4.39947566e+02 4.39976949e+02 
4.40006331e+02 4.40035713e+02 4.40065094e+02 4.40094476e+02 4.40123857e+02 
4.40153238e+02 4.40182619e+02 4.40212000e+02 4.40241381e+02 4.40270761e+02 
4.40300142e+02 4.40329522e+02 4.40358901e+02 4.40388281e+02 4.40417661e+02 
4.40447040e+02 4.40476419e+02 4.40505798e+02 4.40535177e+02 4.40564556e+02 
4.40593934e+02 4.40623312e+02 4.40652690e+02 4.40682068e+02 4.40711446e+02 
4.40740823e+02 4.40770201e+02 4.40799578e+02 4.40828955e+02 4.40858332e+02 
4.40887708e+02 4.40917085e+02 4.40946461e+02 4.40975837e+02 4.41005213e+02 
4.41034588e+02 4.41063964e+02 4.41093339e+02 4.41122714e+02 4.41152089e+02 
4.41181464e+02 4.41210839e+02 4.41240213e+02 4.41269587e+02 4.41298961e+02 
4.41328335e+02 4.41357709e+02 4.41387082e+02 4.41416456e+02 4.41445829e+02 
4.41475202e+02 4.41504574e+02 4.41533947e+02 4.41563319e+02 4.41592691e+02 
4.41622063e+02 4.41651435e+02 4.41680807e+02 4.41710178e+02 4.41739550e+02 
4.41768921e+02 4.41798292e+02 4.41827662e+02 4.41857033e+02 4.41886403e+02 
4.41915774e+02 4.41945144e+02 4.41974513e+02 4.42003883e+02 4.42033252e+02 
4.42062622e+02 4.42091991e+02 4.42121360e+02 4.42150728e+02 4.42180097e+02 
4.42209465e+02 4.42238833e+02 4.42268201e+02 4.42297569e+02 4.42326937e+02 
4.42356304e+02 4.42385671e+02 4.42415038e+02 4.42444405e+02 4.42473772e+02 
4.42503138e+02 4.42532505e+02 4.42561871e+02 4.42591237e+02 4.42620603e+02 
4.42649968e+02 4.42679334e+02 4.42708699e+02 4.42738064e+02 4.42767429e+02 
4.42796793e+02 4.42826158e+02 4.42855522e+02 4.42884886e+02 4.42914250e+02 
4.42943614e+02 4.42972977e+02 4.43002341e+02 4.43031704e+02 4.43061067e+02 
4.43090430e+02 4.43119792e+02 4.43149155e+02 4.43178517e+02 4.43207879e+02 
4.43237241e+02 4.43266603e+02 4.43295964e+02 4.43325326e+02 4.43354687e+02 
4.43384048e+02 4.43413409e+02 4.43442769e+02 4.43472130e+02 4.43501490e+02 
4.43530850e+02 4.43560210e+02 4.43589569e+02 4.43618929e+02 4.43648288e+02 
4.43677647e+02 4.43707006e+02 4.43736365e+02 4.43765723e+02 4.43795082e+02 
4.43824440e+02 4.43853798e+02 4.43883156e+02 4.43912514e+02 4.43941871e+02 
4.43971228e+02 4.44000585e+02 4.44029942e+02 4.44059299e+02 4.44088655e+02 
4.44118012e+02 4.44147368e+02 4.44176724e+02 4.44206080e+02 4.44235435e+02 
4.44264791e+02 4.44294146e+02 4.44323501e+02 4.44352856e+02 4.44382211e+02 
4.44411565e+02 4.44440919e+02 4.44470273e+02 4.44499627e+02 4.44528981e+02 
4.44558335e+02 4.44587688e+02 4.44617041e+02 4.44646394e+02 4.44675747e+02 
4.44705100e+02 4.44734452e+02 4.44763804e+02 4.44793156e+02 4.44822508e+02 
4.44851860e+02 4.44881212e+02 4.44910563e+02 4.44939914e+02 4.44969265e+02 
4.44998616e+02 4.45027966e+02 4.45057317e+02 4.45086667e+02 4.45116017e+02 
4.45145367e+02 4.45174717e+02 4.45204066e+02 4.45233415e+02 4.45262764e+02 
4.45292113e+02 4.45321462e+02 4.45350811e+02 4.45380159e+02 4.45409507e+02 
4.45438855e+02 4.45468203e+02 4.45497551e+02 4.45526898e+02 4.45556245e+02 
4.45585592e+02 4.45614939e+02 4.45644286e+02 4.45673632e+02 4.45702979e+02 
4.45732325e+02 4.45761671e+02 4.45791016e+02 4.45820362e+02 4.45849707e+02 
4.45879053e+02 4.45908398e+02 4.45937742e+02 4.45967087e+02 4.45996431e+02 
4.46025776e+02 4.46055120e+02 4.46084464e+02 4.46113807e+02 4.46143151e+02 
4.46172494e+02 4.46201837e+02 4.46231180e+02 4.46260523e+02 4.46289866e+02 
4.46319208e+02 4.46348550e+02 4.46377892e+02 4.46407234e+02 4.46436576e+02 
4.46465917e+02 4.46495258e+02 4.46524600e+02 4.46553940e+02 4.46583281e+02 
4.46612622e+02 4.46641962e+02 4.46671302e+02 4.46700642e+02 4.46729982e+02 
4.46759321e+02 4.46788661e+02 4.46818000e+02 4.46847339e+02 4.46876678e+02 
4.46906017e+02 4.46935355e+02 4.46964693e+02 4.46994031e+02 4.47023369e+02 
4.47052707e+02 4.47082045e+02 4.47111382e+02 4.47140719e+02 4.47170056e+02 
4.47199393e+02 4.47228729e+02 4.47258066e+02 4.47287402e+02 4.47316738e+02 
4.47346074e+02 4.47375410e+02 4.47404745e+02 4.47434080e+02 4.47463415e+02 
4.47492750e+02 4.47522085e+02 4.47551420e+02 4.47580754e+02 4.47610088e+02 
4.47639422e+02 4.47668756e+02 4.47698089e+02 4.47727423e+02 4.47756756e+02 
4.47786089e+02 4.47815422e+02 4.47844755e+02 4.47874087e+02 4.47903419e+02 
4.47932751e+02 4.47962083e+02 4.47991415e+02 4.48020747e+02 4.48050078e+02 
4.48079409e+02 4.48108740e+02 4.48138071e+02 4.48167401e+02 4.48196732e+02 
4.48226062e+02 4.48255392e+02 4.48284722e+02 4.48314051e+02 4.48343381e+02 
4.48372710e+02 4.48402039e+02 4.48431368e+02 4.48460697e+02 4.48490025e+02 
4.48519354e+02 4.48548682e+02 4.48578010e+02 4.48607338e+02 4.48636665e+02 
4.48665993e+02 4.48695320e+02 4.48724647e+02 4.48753974e+02 4.48783300e+02 
4.48812627e+02 4.48841953e+02 4.48871279e+02 4.48900605e+02 4.48929931e+02 
4.48959256e+02 4.48988581e+02 4.49017906e+02 4.49047231e+02 4.49076556e+02 
4.49105881e+02 4.49135205e+02 4.49164529e+02 4.49193853e+02 4.49223177e+02 
4.49252501e+02 4.49281824e+02 4.49311147e+02 4.49340470e+02 4.49369793e+02 
4.49399116e+02 4.49428438e+02 4.49457761e+02 4.49487083e+02 4.49516405e+02 
4.49545726e+02 4.49575048e+02 4.49604369e+02 4.49633691e+02 4.49663011e+02 
4.49692332e+02 4.49721653e+02 4.49750973e+02 4.49780293e+02 4.49809614e+02 
4.49838933e+02 4.49868253e+02 4.49897572e+02 4.49926892e+02 4.49956211e+02 
4.49985530e+02 4.50014848e+02 4.50044167e+02 4.50073485e+02 4.50102803e+02 
4.50132121e+02 4.50161439e+02 4.50190757e+02 4.50220074e+02 4.50249391e+02 
4.50278708e+02 4.50308025e+02 4.50337342e+02 4.50366658e+02 4.50395974e+02 
4.50425290e+02 4.50454606e+02 4.50483922e+02 4.50513237e+02 4.50542553e+02 
4.50571868e+02 4.50601183e+02 4.50630497e+02 4.50659812e+02 4.50689126e+02 
4.50718440e+02 4.50747754e+02 4.50777068e+02 4.50806382e+02 4.50835695e+02 
4.50865008e+02 4.50894321e+02 4.50923634e+02 4.50952947e+02 4.50982259e+02 
4.51011572e+02 4.51040884e+02 4.51070195e+02 4.51099507e+02 4.51128819e+02 
4.51158130e+02 4.51187441e+02 4.51216752e+02 4.51246063e+02 4.51275373e+02 
4.51304684e+02 4.51333994e+02 4.51363304e+02 4.51392614e+02 4.51421923e+02 
4.51451233e+02 4.51480542e+02 4.51509851e+02 4.51539160e+02 4.51568468e+02 
4.51597777e+02 4.51627085e+02 4.51656393e+02 4.51685701e+02 4.51715009e+02 
4.51744316e+02 4.51773624e+02 4.51802931e+02 4.51832238e+02 4.51861544e+02 
4.51890851e+02 4.51920157e+02 4.51949463e+02 4.51978769e+02 4.52008075e+02 
4.52037381e+02 4.52066686e+02 4.52095991e+02 4.52125296e+02 4.52154601e+02 
4.52183906e+02 4.52213210e+02 4.52242515e+02 4.52271819e+02 4.52301123e+02 
4.52330426e+02 4.52359730e+02 4.52389033e+02 4.52418336e+02 4.52447639e+02 
4.52476942e+02 4.52506244e+02 4.52535547e+02 4.52564849e+02 4.52594151e+02 
4.52623453e+02 4.52652754e+02 4.52682056e+02 4.52711357e+02 4.52740658e+02 
4.52769959e+02 4.52799259e+02 4.52828560e+02 4.52857860e+02 4.52887160e+02 
4.52916460e+02 4.52945760e+02 4.52975059e+02 4.53004358e+02 4.53033658e+02 
4.53062956e+02 4.53092255e+02 4.53121554e+02 4.53150852e+02 4.53180150e+02 
4.53209448e+02 4.53238746e+02 4.53268044e+02 4.53297341e+02 4.53326638e+02 
4.53355935e+02 4.53385232e+02 4.53414529e+02 4.53443825e+02 4.53473121e+02 
4.53502417e+02 4.53531713e+02 4.53561009e+02 4.53590304e+02 4.53619599e+02 
4.53648895e+02 4.53678189e+02 4.53707484e+02 4.53736779e+02 4.53766073e+02 
4.53795367e+02 4.53824661e+02 4.53853955e+02 4.53883248e+02 4.53912542e+02 
4.53941835e+02 4.53971128e+02 4.54000421e+02 4.54029713e+02 4.54059006e+02 
4.54088298e+02 4.54117590e+02 4.54146882e+02 4.54176173e+02 4.54205465e+02 
4.54234756e+02 4.54264047e+02 4.54293338e+02 4.54322629e+02 4.54351919e+02 
4.54381209e+02 4.54410500e+02 4.54439789e+02 4.54469079e+02 4.54498369e+02 
4.54527658e+02 4.54556947e+02 4.54586236e+02 4.54615525e+02 4.54644813e+02 
4.54674102e+02 4.54703390e+02 4.54732678e+02 4.54761966e+02 4.54791253e+02 
4.54820541e+02 4.54849828e+02 4.54879115e+02 4.54908402e+02 4.54937688e+02 
4.54966975e+02 4.54996261e+02 4.55025547e+02 4.55054833e+02 4.55084119e+02 
4.55113404e+02 4.55142689e+02 4.55171975e+02 4.55201259e+02 4.55230544e+02 
4.55259829e+02 4.55289113e+02 4.55318397e+02 4.55347681e+02 4.55376965e+02 
4.55406248e+02 4.55435532e+02 4.55464815e+02 4.55494098e+02 4.55523381e+02 
4.55552663e+02 4.55581946e+02 4.55611228e+02 4.55640510e+02 4.55669792e+02 
4.55699073e+02 4.55728355e+02 4.55757636e+02 4.55786917e+02 4.55816198e+02 
4.55845479e+02 4.55874759e+02 4.55904039e+02 4.55933319e+02 4.55962599e+02 
4.55991879e+02 4.56021158e+02 4.56050438e+02 4.56079717e+02 4.56108996e+02 
4.56138275e+02 4.56167553e+02 4.56196831e+02 4.56226110e+02 4.56255387e+02 
4.56284665e+02 4.56313943e+02 4.56343220e+02 4.56372497e+02 4.56401774e+02 
4.56431051e+02 4.56460328e+02 4.56489604e+02 4.56518880e+02 4.56548156e+02 
4.56577432e+02 4.56606708e+02 4.56635983e+02 4.56665259e+02 4.56694534e+02 
4.56723808e+02 4.56753083e+02 4.56782358e+02 4.56811632e+02 4.56840906e+02 
4.56870180e+02 4.56899454e+02 4.56928727e+02 4.56958000e+02 4.56987274e+02 
4.57016546e+02 4.57045819e+02 4.57075092e+02 4.57104364e+02 4.57133636e+02 
4.57162908e+02 4.57192180e+02 4.57221451e+02 4.57250723e+02 4.57279994e+02 
4.57309265e+02 4.57338536e+02 4.57367806e+02 4.57397077e+02 4.57426347e+02 
4.57455617e+02 4.57484887e+02 4.57514156e+02 4.57543426e+02 4.57572695e+02 
4.57601964e+02 4.57631233e+02 4.57660502e+02 4.57689770e+02 4.57719038e+02 
4.57748306e+02 4.57777574e+02 4.57806842e+02 4.57836110e+02 4.57865377e+02 
4.57894644e+02 4.57923911e+02 4.57953178e+02 4.57982444e+02 4.58011710e+02 
4.58040976e+02 4.58070242e+02 4.58099508e+02 4.58128774e+02 4.58158039e+02 
4.58187304e+02 4.58216569e+02 4.58245834e+02 4.58275099e+02 4.58304363e+02 
4.58333627e+02 4.58362891e+02 4.58392155e+02 4.58421418e+02 4.58450682e+02 
4.58479945e+02 4.58509208e+02 4.58538471e+02 4.58567734e+02 4.58596996e+02 
4.58626258e+02 4.58655520e+02 4.58684782e+02 4.58714044e+02 4.58743305e+02 
4.58772566e+02 4.58801828e+02 4.58831088e+02 4.58860349e+02 4.58889610e+02 
4.58918870e+02 4.58948130e+02 4.58977390e+02 4.59006650e+02 4.59035909e+02 
4.59065168e+02 4.59094427e+02 4.59123686e+02 4.59152945e+02 4.59182204e+02 
4.59211462e+02 4.59240720e+02 4.59269978e+02 4.59299236e+02 4.59328493e+02 
4.59357751e+02 4.59387008e+02 4.59416265e+02 4.59445522e+02 4.59474778e+02 
4.59504035e+02 4.59533291e+02 4.59562547e+02 4.59591803e+02 4.59621058e+02 
4.59650314e+02 4.59679569e+02 4.59708824e+02 4.59738079e+02 4.59767333e+02 
4.59796588e+02 4.59825842e+02 4.59855096e+02 4.59884350e+02 4.59913603e+02 
4.59942857e+02 4.59972110e+02 4.60001363e+02 4.60030616e+02 4.60059869e+02 
4.60089121e+02 4.60118373e+02 4.60147626e+02 4.60176877e+02 4.60206129e+02 
4.60235381e+02 4.60264632e+02 4.60293883e+02 4.60323134e+02 4.60352385e+02 
4.60381635e+02 4.60410885e+02 4.60440136e+02 4.60469385e+02 4.60498635e+02 
4.60527885e+02 4.60557134e+02 4.60586383e+02 4.60615632e+02 4.60644881e+02 
4.60674129e+02 4.60703378e+02 4.60732626e+02 4.60761874e+02 4.60791122e+02 
4.60820369e+02 4.60849617e+02 4.60878864e+02 4.60908111e+02 4.60937358e+02 
4.60966604e+02 4.60995851e+02 4.61025097e+02 4.61054343e+02 4.61083589e+02 
4.61112834e+02 4.61142080e+02 4.61171325e+02 4.61200570e+02 4.61229815e+02 
4.61259059e+02 4.61288304e+02 4.61317548e+02 4.61346792e+02 4.61376036e+02 
4.61405280e+02 4.61434523e+02 4.61463766e+02 4.61493009e+02 4.61522252e+02 
4.61551495e+02 4.61580737e+02 4.61609980e+02 4.61639222e+02 4.61668463e+02 
4.61697705e+02 4.61726947e+02 4.61756188e+02 4.61785429e+02 4.61814670e+02 
4.61843911e+02 4.61873151e+02 4.61902391e+02 4.61931631e+02 4.61960871e+02 
4.61990111e+02 4.62019351e+02 4.62048590e+02 4.62077829e+02 4.62107068e+02 
4.62136307e+02 4.62165545e+02 4.62194784e+02 4.62224022e+02 4.62253260e+02 
4.62282497e+02 4.62311735e+02 4.62340972e+02 4.62370209e+02 4.62399446e+02 
4.62428683e+02 4.62457920e+02 4.62487156e+02 4.62516392e+02 4.62545628e+02 
4.62574864e+02 4.62604099e+02 4.62633335e+02 4.62662570e+02 4.62691805e+02 
4.62721040e+02 4.62750274e+02 4.62779509e+02 4.62808743e+02 4.62837977e+02 
4.62867211e+02 4.62896444e+02 4.62925678e+02 4.62954911e+02 4.62984144e+02 
4.63013377e+02 4.63042609e+02 4.63071842e+02 4.63101074e+02 4.63130306e+02 
4.63159538e+02 4.63188769e+02 4.63218001e+02 4.63247232e+02 4.63276463e+02 
4.63305694e+02 4.63334925e+02 4.63364155e+02 4.63393385e+02 4.63422615e+02 
4.63451845e+02 4.63481075e+02 4.63510304e+02 4.63539533e+02 4.63568763e+02 
4.63597991e+02 4.63627220e+02 4.63656449e+02 4.63685677e+02 4.63714905e+02 
4.63744133e+02 4.63773360e+02 4.63802588e+02 4.63831815e+02 4.63861042e+02 
4.63890269e+02 4.63919496e+02 4.63948722e+02 4.63977948e+02 4.64007175e+02 
4.64036400e+02 4.64065626e+02 4.64094852e+02 4.64124077e+02 4.64153302e+02 
4.64182527e+02 4.64211752e+02 4.64240976e+02 4.64270200e+02 4.64299424e+02 
4.64328648e+02 4.64357872e+02 4.64387096e+02 4.64416319e+02 4.64445542e+02 
4.64474765e+02 4.64503988e+02 4.64533210e+02 4.64562432e+02 4.64591655e+02 
4.64620876e+02 4.64650098e+02 4.64679320e+02 4.64708541e+02 4.64737762e+02 
4.64766983e+02 4.64796204e+02 4.64825424e+02 4.64854645e+02 4.64883865e+02 
4.64913085e+02 4.64942304e+02 4.64971524e+02 4.65000743e+02 4.65029962e+02 
4.65059181e+02 4.65088400e+02 4.65117619e+02 4.65146837e+02 4.65176055e+02 
4.65205273e+02 4.65234491e+02 4.65263708e+02 4.65292926e+02 4.65322143e+02 
4.65351360e+02 4.65380577e+02 4.65409793e+02 4.65439009e+02 4.65468226e+02 
4.65497442e+02 4.65526657e+02 4.65555873e+02 4.65585088e+02 4.65614303e+02 
4.65643518e+02 4.65672733e+02 4.65701948e+02 4.65731162e+02 4.65760376e+02 
4.65789590e+02 4.65818804e+02 4.65848017e+02 4.65877231e+02 4.65906444e+02 
4.65935657e+02 4.65964870e+02 4.65994082e+02 4.66023295e+02 4.66052507e+02 
4.66081719e+02 4.66110931e+02 4.66140142e+02 4.66169353e+02 4.66198565e+02 
4.66227776e+02 4.66256986e+02 4.66286197e+02 4.66315407e+02 4.66344618e+02 
4.66373827e+02 4.66403037e+02 4.66432247e+02 4.66461456e+02 4.66490665e+02 
4.66519874e+02 4.66549083e+02 4.66578292e+02 4.66607500e+02 4.66636708e+02 
4.66665916e+02 4.66695124e+02 4.66724332e+02 4.66753539e+02 4.66782746e+02 
4.66811953e+02 4.66841160e+02 4.66870366e+02 4.66899573e+02 4.66928779e+02 
4.66957985e+02 4.66987191e+02 4.67016396e+02 4.67045602e+02 4.67074807e+02 
4.67104012e+02 4.67133217e+02 4.67162421e+02 4.67191626e+02 4.67220830e+02 
4.67250034e+02 4.67279238e+02 4.67308441e+02 4.67337645e+02 4.67366848e+02 
4.67396051e+02 4.67425253e+02 4.67454456e+02 4.67483658e+02 4.67512861e+02 
4.67542063e+02 4.67571264e+02 4.67600466e+02 4.67629667e+02 4.67658869e+02 
4.67688069e+02 4.67717270e+02 4.67746471e+02 4.67775671e+02 4.67804871e+02 
4.67834071e+02 4.67863271e+02 4.67892471e+02 4.67921670e+02 4.67950869e+02 
4.67980068e+02 4.68009267e+02 4.68038466e+02 4.68067664e+02 4.68096862e+02 
4.68126060e+02 4.68155258e+02 4.68184455e+02 4.68213653e+02 4.68242850e+02 
4.68272047e+02 4.68301244e+02 4.68330440e+02 4.68359637e+02 4.68388833e+02 
4.68418029e+02 4.68447224e+02 4.68476420e+02 4.68505615e+02 4.68534811e+02 
4.68564006e+02 4.68593200e+02 4.68622395e+02 4.68651589e+02 4.68680783e+02 
4.68709977e+02 4.68739171e+02 4.68768365e+02 4.68797558e+02 4.68826751e+02 
4.68855944e+02 4.68885137e+02 4.68914329e+02 4.68943522e+02 4.68972714e+02 
4.69001906e+02 4.69031098e+02 4.69060289e+02 4.69089480e+02 4.69118672e+02 
4.69147863e+02 4.69177053e+02 4.69206244e+02 4.69235434e+02 4.69264624e+02 
4.69293814e+02 4.69323004e+02 4.69352193e+02 4.69381383e+02 4.69410572e+02 
4.69439761e+02 4.69468950e+02 4.69498138e+02 4.69527326e+02 4.69556515e+02 
4.69585702e+02 4.69614890e+02 4.69644078e+02 4.69673265e+02 4.69702452e+02 
4.69731639e+02 4.69760826e+02 4.69790012e+02 4.69819199e+02 4.69848385e+02 
4.69877571e+02 4.69906756e+02 4.69935942e+02 4.69965127e+02 4.69994312e+02 
4.70023497e+02 4.70052682e+02 4.70081866e+02 4.70111050e+02 4.70140235e+02 
4.70169418e+02 4.70198602e+02 4.70227786e+02 4.70256969e+02 4.70286152e+02 
4.70315335e+02 4.70344518e+02 4.70373700e+02 4.70402882e+02 4.70432064e+02 
4.70461246e+02 4.70490428e+02 4.70519609e+02 4.70548791e+02 4.70577972e+02 
4.70607153e+02 4.70636333e+02 4.70665514e+02 4.70694694e+02 4.70723874e+02 
4.70753054e+02 4.70782233e+02 4.70811413e+02 4.70840592e+02 4.70869771e+02 
4.70898950e+02 4.70928129e+02 4.70957307e+02 4.70986485e+02 4.71015663e+02 
4.71044841e+02 4.71074019e+02 4.71103196e+02 4.71132373e+02 4.71161550e+02 
4.71190727e+02 4.71219904e+02 4.71249080e+02 4.71278256e+02 4.71307432e+02 
4.71336608e+02 4.71365784e+02 4.71394959e+02 4.71424134e+02 4.71453309e+02 
4.71482484e+02 4.71511659e+02 4.71540833e+02 4.71570007e+02 4.71599181e+02 
4.71628355e+02 4.71657529e+02 4.71686702e+02 4.71715875e+02 4.71745048e+02 
4.71774221e+02 4.71803394e+02 4.71832566e+02 4.71861738e+02 4.71890910e+02 
4.71920082e+02 4.71949253e+02 4.71978425e+02 4.72007596e+02 4.72036767e+02 
4.72065937e+02 4.72095108e+02 4.72124278e+02 4.72153448e+02 4.72182618e+02 
4.72211788e+02 4.72240958e+02 4.72270127e+02 4.72299296e+02 4.72328465e+02 
4.72357634e+02 4.72386802e+02 4.72415970e+02 4.72445139e+02 4.72474306e+02 
4.72503474e+02 4.72532642e+02 4.72561809e+02 4.72590976e+02 4.72620143e+02 
4.72649310e+02 4.72678476e+02 4.72707642e+02 4.72736808e+02 4.72765974e+02 
4.72795140e+02 4.72824305e+02 4.72853471e+02 4.72882636e+02 4.72911800e+02 
4.72940965e+02 4.72970130e+02 4.72999294e+02 4.73028458e+02 4.73057622e+02 
4.73086785e+02 4.73115949e+02 4.73145112e+02 4.73174275e+02 4.73203438e+02 
4.73232600e+02 4.73261763e+02 4.73290925e+02 4.73320087e+02 4.73349249e+02 
4.73378410e+02 4.73407572e+02 4.73436733e+02 4.73465894e+02 4.73495055e+02 
4.73524215e+02 4.73553376e+02 4.73582536e+02 4.73611696e+02 4.73640856e+02 
4.73670015e+02 4.73699174e+02 4.73728334e+02 4.73757492e+02 4.73786651e+02 
4.73815810e+02 4.73844968e+02 4.73874126e+02 4.73903284e+02 4.73932442e+02 
4.73961599e+02 4.73990757e+02 4.74019914e+02 4.74049071e+02 4.74078227e+02 
4.74107384e+02 4.74136540e+02 4.74165696e+02 4.74194852e+02 4.74224008e+02 
4.74253163e+02 4.74282319e+02 4.74311474e+02 4.74340629e+02 4.74369783e+02 
4.74398938e+02 4.74428092e+02 4.74457246e+02 4.74486400e+02 4.74515553e+02 
4.74544707e+02 4.74573860e+02 4.74603013e+02 4.74632166e+02 4.74661319e+02 
4.74690471e+02 4.74719623e+02 4.74748775e+02 4.74777927e+02 4.74807079e+02 
4.74836230e+02 4.74865381e+02 4.74894532e+02 4.74923683e+02 4.74952833e+02 
4.74981984e+02 4.75011134e+02 4.75040284e+02 4.75069434e+02 4.75098583e+02 
4.75127733e+02 4.75156882e+02 4.75186031e+02 4.75215179e+02 4.75244328e+02 
4.75273476e+02 4.75302624e+02 4.75331772e+02 4.75360920e+02 4.75390067e+02 
4.75419215e+02 4.75448362e+02 4.75477509e+02 4.75506655e+02 4.75535802e+02 
4.75564948e+02 4.75594094e+02 4.75623240e+02 4.75652386e+02 4.75681531e+02 
4.75710676e+02 4.75739822e+02 4.75768966e+02 4.75798111e+02 4.75827255e+02 
4.75856400e+02 4.75885544e+02 4.75914687e+02 4.75943831e+02 4.75972974e+02 
4.76002118e+02 4.76031261e+02 4.76060403e+02 4.76089546e+02 4.76118688e+02 
4.76147831e+02 4.76176973e+02 4.76206114e+02 4.76235256e+02 4.76264397e+02 
4.76293538e+02 4.76322679e+02 4.76351820e+02 4.76380961e+02 4.76410101e+02 
4.76439241e+02 4.76468381e+02 4.76497521e+02 4.76526660e+02 4.76555800e+02 
4.76584939e+02 4.76614078e+02 4.76643216e+02 4.76672355e+02 4.76701493e+02 
4.76730631e+02 4.76759769e+02 4.76788907e+02 4.76818044e+02 4.76847181e+02 
4.76876318e+02 4.76905455e+02 4.76934592e+02 4.76963728e+02 4.76992864e+02 
4.77022000e+02 4.77051136e+02 4.77080272e+02 4.77109407e+02 4.77138542e+02 
4.77167677e+02 4.77196812e+02 4.77225947e+02 4.77255081e+02 4.77284215e+02 
4.77313349e+02 4.77342483e+02 4.77371617e+02 4.77400750e+02 4.77429883e+02 
4.77459016e+02 4.77488149e+02 4.77517281e+02 4.77546413e+02 4.77575546e+02 
4.77604677e+02 4.77633809e+02 4.77662941e+02 4.77692072e+02 4.77721203e+02 
4.77750334e+02 4.77779465e+02 4.77808595e+02 4.77837725e+02 4.77866855e+02 
4.77895985e+02 4.77925115e+02 4.77954244e+02 4.77983373e+02 4.78012502e+02 
4.78041631e+02 4.78070760e+02 4.78099888e+02 4.78129016e+02 4.78158144e+02 
4.78187272e+02 4.78216400e+02 4.78245527e+02 4.78274654e+02 4.78303781e+02 
4.78332908e+02 4.78362034e+02 4.78391161e+02 4.78420287e+02 4.78449413e+02 
4.78478539e+02 4.78507664e+02 4.78536789e+02 4.78565914e+02 4.78595039e+02 
4.78624164e+02 4.78653288e+02 4.78682413e+02 4.78711537e+02 4.78740661e+02 
4.78769784e+02 4.78798908e+02 4.78828031e+02 4.78857154e+02 4.78886277e+02 
4.78915399e+02 4.78944522e+02 4.78973644e+02 4.79002766e+02 4.79031888e+02 
4.79061009e+02 4.79090131e+02 4.79119252e+02 4.79148373e+02 4.79177494e+02 
4.79206614e+02 4.79235735e+02 4.79264855e+02 4.79293975e+02 4.79323094e+02 
4.79352214e+02 4.79381333e+02 4.79410452e+02 4.79439571e+02 4.79468690e+02 
4.79497808e+02 4.79526927e+02 4.79556045e+02 4.79585163e+02 4.79614280e+02 
4.79643398e+02 4.79672515e+02 4.79701632e+02 4.79730749e+02 4.79759865e+02 
4.79788982e+02 4.79818098e+02 4.79847214e+02 4.79876330e+02 4.79905445e+02 
4.79934561e+02 4.79963676e+02 4.79992791e+02 4.80021906e+02 4.80051020e+02 
4.80080134e+02 4.80109249e+02 4.80138362e+02 4.80167476e+02 4.80196590e+02 
4.80225703e+02 4.80254816e+02 4.80283929e+02 4.80313042e+02 4.80342154e+02 
4.80371266e+02 4.80400378e+02 4.80429490e+02 4.80458602e+02 4.80487713e+02 
4.80516825e+02 4.80545936e+02 4.80575046e+02 4.80604157e+02 4.80633267e+02 
4.80662378e+02 4.80691488e+02 4.80720597e+02 4.80749707e+02 4.80778816e+02 
4.80807925e+02 4.80837034e+02 4.80866143e+02 4.80895252e+02 4.80924360e+02 
4.80953468e+02 4.80982576e+02 4.81011684e+02 4.81040791e+02 4.81069898e+02 
4.81099006e+02 4.81128112e+02 4.81157219e+02 4.81186326e+02 4.81215432e+02 
4.81244538e+02 4.81273644e+02 4.81302749e+02 4.81331855e+02 4.81360960e+02 
4.81390065e+02 4.81419170e+02 4.81448274e+02 4.81477379e+02 4.81506483e+02 
4.81535587e+02 4.81564690e+02 4.81593794e+02 4.81622897e+02 4.81652000e+02 
4.81681103e+02 4.81710206e+02 4.81739309e+02 4.81768411e+02 4.81797513e+02 
4.81826615e+02 4.81855716e+02 4.81884818e+02 4.81913919e+02 4.81943020e+02 
4.81972121e+02 4.82001222e+02 4.82030322e+02 4.82059422e+02 4.82088522e+02 
4.82117622e+02 4.82146722e+02 4.82175821e+02 4.82204920e+02 4.82234019e+02 
4.82263118e+02 4.82292216e+02 4.82321315e+02 4.82350413e+02 4.82379511e+02 
4.82408609e+02 4.82437706e+02 4.82466803e+02 4.82495900e+02 4.82524997e+02 
4.82554094e+02 4.82583190e+02 4.82612287e+02 4.82641383e+02 4.82670478e+02 
4.82699574e+02 4.82728670e+02 4.82757765e+02 4.82786860e+02 4.82815955e+02 
4.82845049e+02 4.82874143e+02 4.82903238e+02 4.82932332e+02 4.82961425e+02 
4.82990519e+02 4.83019612e+02 4.83048705e+02 4.83077798e+02 4.83106891e+02 
4.83135983e+02 4.83165076e+02 4.83194168e+02 4.83223260e+02 4.83252351e+02 
4.83281443e+02 4.83310534e+02 4.83339625e+02 4.83368716e+02 4.83397806e+02 
4.83426897e+02 4.83455987e+02 4.83485077e+02 4.83514167e+02 4.83543256e+02 
4.83572346e+02 4.83601435e+02 4.83630524e+02 4.83659612e+02 4.83688701e+02 
4.83717789e+02 4.83746877e+02 4.83775965e+02 4.83805053e+02 4.83834140e+02 
4.83863228e+02 4.83892315e+02 4.83921402e+02 4.83950488e+02 4.83979575e+02 
4.84008661e+02 4.84037747e+02 4.84066833e+02 4.84095918e+02 4.84125004e+02 
4.84154089e+02 4.84183174e+02 4.84212259e+02 4.84241343e+02 4.84270427e+02 
4.84299512e+02 4.84328595e+02 4.84357679e+02 4.84386763e+02 4.84415846e+02 
4.84444929e+02 4.84474012e+02 4.84503095e+02 4.84532177e+02 4.84561259e+02 
4.84590341e+02 4.84619423e+02 4.84648505e+02 4.84677586e+02 4.84706667e+02 
4.84735748e+02 4.84764829e+02 4.84793910e+02 4.84822990e+02 4.84852070e+02 
4.84881150e+02 4.84910230e+02 4.84939309e+02 4.84968389e+02 4.84997468e+02 
4.85026547e+02 4.85055625e+02 4.85084704e+02 4.85113782e+02 4.85142860e+02 
4.85171938e+02 4.85201015e+02 4.85230093e+02 4.85259170e+02 4.85288247e+02 
4.85317324e+02 4.85346400e+02 4.85375477e+02 4.85404553e+02 4.85433629e+02 
4.85462705e+02 4.85491780e+02 4.85520855e+02 4.85549931e+02 4.85579005e+02 
4.85608080e+02 4.85637155e+02 4.85666229e+02 4.85695303e+02 4.85724377e+02 
4.85753450e+02 4.85782524e+02 4.85811597e+02 4.85840670e+02 4.85869743e+02 
4.85898815e+02 4.85927888e+02 4.85956960e+02 4.85986032e+02 4.86015104e+02 
4.86044175e+02 4.86073246e+02 4.86102318e+02 4.86131388e+02 4.86160459e+02 
4.86189530e+02 4.86218600e+02 4.86247670e+02 4.86276740e+02 4.86305809e+02 
4.86334879e+02 4.86363948e+02 4.86393017e+02 4.86422086e+02 4.86451154e+02 
4.86480223e+02 4.86509291e+02 4.86538359e+02 4.86567427e+02 4.86596494e+02 
4.86625562e+02 4.86654629e+02 4.86683696e+02 4.86712762e+02 4.86741829e+02 
4.86770895e+02 4.86799961e+02 4.86829027e+02 4.86858092e+02 4.86887158e+02 
4.86916223e+02 4.86945288e+02 4.86974353e+02 4.87003417e+02 4.87032482e+02 
4.87061546e+02 4.87090610e+02 4.87119674e+02 4.87148737e+02 4.87177801e+02 
4.87206864e+02 4.87235927e+02 4.87264989e+02 4.87294052e+02 4.87323114e+02 
4.87352176e+02 4.87381238e+02 4.87410299e+02 4.87439361e+02 4.87468422e+02 
4.87497483e+02 4.87526544e+02 4.87555604e+02 4.87584665e+02 4.87613725e+02 
4.87642785e+02 4.87671845e+02 4.87700904e+02 4.87729963e+02 4.87759023e+02 
4.87788081e+02 4.87817140e+02 4.87846199e+02 4.87875257e+02 4.87904315e+02 
4.87933373e+02 4.87962430e+02 4.87991488e+02 4.88020545e+02 4.88049602e+02 
4.88078659e+02 4.88107715e+02 4.88136772e+02 4.88165828e+02 4.88194884e+02 
4.88223939e+02 4.88252995e+02 4.88282050e+02 4.88311105e+02 4.88340160e+02 
4.88369215e+02 4.88398269e+02 4.88427323e+02 4.88456377e+02 4.88485431e+02 
4.88514485e+02 4.88543538e+02 4.88572591e+02 4.88601644e+02 4.88630697e+02 
4.88659750e+02 4.88688802e+02 4.88717854e+02 4.88746906e+02 4.88775958e+02 
4.88805009e+02 4.88834060e+02 4.88863111e+02 4.88892162e+02 4.88921213e+02 
4.88950263e+02 4.88979314e+02 4.89008364e+02 4.89037413e+02 4.89066463e+02 
4.89095512e+02 4.89124561e+02 4.89153610e+02 4.89182659e+02 4.89211708e+02 
4.89240756e+02 4.89269804e+02 4.89298852e+02 4.89327900e+02 4.89356947e+02 
4.89385994e+02 4.89415041e+02 4.89444088e+02 4.89473135e+02 4.89502181e+02 
4.89531227e+02 4.89560273e+02 4.89589319e+02 4.89618365e+02 4.89647410e+02 
4.89676455e+02 4.89705500e+02 4.89734545e+02 4.89763589e+02 4.89792633e+02 
4.89821677e+02 4.89850721e+02 4.89879765e+02 4.89908808e+02 4.89937852e+02 
4.89966895e+02 4.89995937e+02 4.90024980e+02 4.90054022e+02 4.90083065e+02 
4.90112106e+02 4.90141148e+02 4.90170190e+02 4.90199231e+02 4.90228272e+02 
4.90257313e+02 4.90286354e+02 4.90315394e+02 4.90344434e+02 4.90373474e+02 
4.90402514e+02 4.90431554e+02 4.90460593e+02 4.90489632e+02 4.90518671e+02 
4.90547710e+02 4.90576749e+02 4.90605787e+02 4.90634825e+02 4.90663863e+02 
4.90692901e+02 4.90721938e+02 4.90750975e+02 4.90780012e+02 4.90809049e+02 
4.90838086e+02 4.90867122e+02 4.90896159e+02 4.90925195e+02 4.90954230e+02 
4.90983266e+02 4.91012301e+02 4.91041336e+02 4.91070371e+02 4.91099406e+02 
4.91128440e+02 4.91157475e+02 4.91186509e+02 4.91215543e+02 4.91244576e+02 
4.91273610e+02 4.91302643e+02 4.91331676e+02 4.91360709e+02 4.91389741e+02 
4.91418774e+02 4.91447806e+02 4.91476838e+02 4.91505870e+02 4.91534901e+02 
4.91563932e+02 4.91592963e+02 4.91621994e+02 4.91651025e+02 4.91680055e+02 
4.91709086e+02 4.91738116e+02 4.91767146e+02 4.91796175e+02 4.91825205e+02 
4.91854234e+02 4.91883263e+02 4.91912291e+02 4.91941320e+02 4.91970348e+02 
4.91999376e+02 4.92028404e+02 4.92057432e+02 4.92086459e+02 4.92115487e+02 
4.92144514e+02 4.92173541e+02 4.92202567e+02 4.92231594e+02 4.92260620e+02 
4.92289646e+02 4.92318672e+02 4.92347697e+02 4.92376722e+02 4.92405748e+02 
4.92434772e+02 4.92463797e+02 4.92492822e+02 4.92521846e+02 4.92550870e+02 
4.92579894e+02 4.92608917e+02 4.92637941e+02 4.92666964e+02 4.92695987e+02 
4.92725010e+02 4.92754032e+02 4.92783055e+02 4.92812077e+02 4.92841099e+02 
4.92870120e+02 4.92899142e+02 4.92928163e+02 4.92957184e+02 4.92986205e+02 
4.93015226e+02 4.93044246e+02 4.93073266e+02 4.93102286e+02 4.93131306e+02 
4.93160326e+02 4.93189345e+02 4.93218364e+02 4.93247383e+02 4.93276402e+02 
4.93305420e+02 4.93334439e+02 4.93363457e+02 4.93392475e+02 4.93421492e+02 
4.93450510e+02 4.93479527e+02 4.93508544e+02 4.93537561e+02 4.93566577e+02 
4.93595594e+02 4.93624610e+02 4.93653626e+02 4.93682641e+02 4.93711657e+02 
4.93740672e+02 4.93769687e+02 4.93798702e+02 4.93827717e+02 4.93856731e+02 
4.93885745e+02 4.93914759e+02 4.93943773e+02 4.93972787e+02 4.94001800e+02 
4.94030813e+02 4.94059826e+02 4.94088839e+02 4.94117851e+02 4.94146864e+02 
4.94175876e+02 4.94204888e+02 4.94233899e+02 4.94262911e+02 4.94291922e+02 
4.94320933e+02 4.94349944e+02 4.94378954e+02 4.94407965e+02 4.94436975e+02 
4.94465985e+02 4.94494994e+02 4.94524004e+02 4.94553013e+02 4.94582022e+02 
4.94611031e+02 4.94640040e+02 4.94669048e+02 4.94698056e+02 4.94727064e+02 
4.94756072e+02 4.94785080e+02 4.94814087e+02 4.94843094e+02 4.94872101e+02 
4.94901108e+02 4.94930114e+02 4.94959121e+02 4.94988127e+02 4.95017133e+02 
4.95046138e+02 4.95075144e+02 4.95104149e+02 4.95133154e+02 4.95162159e+02 
4.95191163e+02 4.95220168e+02 4.95249172e+02 4.95278176e+02 4.95307179e+02 
4.95336183e+02 4.95365186e+02 4.95394189e+02 4.95423192e+02 4.95452195e+02 
4.95481197e+02 4.95510199e+02 4.95539201e+02 4.95568203e+02 4.95597205e+02 
4.95626206e+02 4.95655207e+02 4.95684208e+02 4.95713209e+02 4.95742209e+02 
4.95771209e+02 4.95800210e+02 4.95829209e+02 4.95858209e+02 4.95887208e+02 
4.95916208e+02 4.95945207e+02 4.95974205e+02 4.96003204e+02 4.96032202e+02 
4.96061200e+02 4.96090198e+02 4.96119196e+02 4.96148193e+02 4.96177191e+02 
4.96206188e+02 4.96235185e+02 4.96264181e+02 4.96293178e+02 4.96322174e+02 
4.96351170e+02 4.96380165e+02 4.96409161e+02 4.96438156e+02 4.96467151e+02 
4.96496146e+02 4.96525141e+02 4.96554135e+02 4.96583130e+02 4.96612124e+02 
4.96641118e+02 4.96670111e+02 4.96699104e+02 4.96728098e+02 4.96757091e+02 
4.96786083e+02 4.96815076e+02 4.96844068e+02 4.96873060e+02 4.96902052e+02 
4.96931044e+02 4.96960035e+02 4.96989026e+02 4.97018017e+02 4.97047008e+02 